# Residuals   
# Time        	p_rgh         	Ux            	Uy            
0             	N/A	N/A
0.01          	6.626901e-07	7.674903e-04	2.233299e-04
0.02          	4.364182e-07	5.053016e-05	1.178633e-05
0.03          	3.772228e-07	5.258092e-05	1.406720e-05
0.04          	3.197139e-07	4.994920e-05	2.505791e-05
0.05          	3.117821e-07	4.437018e-05	4.595286e-05
0.06          	3.319701e-07	3.835421e-05	8.495242e-05
0.07          	3.554577e-07	4.456493e-05	4.267245e-05
0.08          	3.569532e-07	4.916531e-05	1.669138e-05
0.09          	3.595231e-07	3.419490e-05	1.177230e-05
0.1           	3.892494e-07	2.868430e-05	1.741115e-05
0.11          	4.070332e-07	2.105201e-05	2.434052e-05
0.12          	4.443423e-07	1.511092e-05	2.322843e-05
0.13          	4.533748e-07	1.180932e-05	1.828090e-05
0.14          	4.875226e-07	9.515500e-06	1.461143e-05
0.15          	7.380757e-07	1.017934e-05	1.207770e-05
0.16          	7.588767e-07	1.495842e-05	8.934574e-06
0.17          	7.637265e-07	1.657057e-05	7.975942e-06
0.18          	8.253562e-07	1.782704e-05	7.446910e-06
0.19          	8.326014e-07	1.808471e-05	7.904418e-06
0.2           	8.932618e-07	1.616655e-05	8.049399e-06
0.21          	9.084898e-07	1.398754e-05	8.331013e-06
0.22          	7.807942e-07	1.219636e-05	8.085038e-06
0.23          	9.896546e-07	1.160776e-05	8.460226e-06
0.24          	8.408206e-07	1.037646e-05	8.725817e-06
0.25          	9.364470e-07	9.510264e-06	9.257955e-06
0.26          	9.104222e-07	8.921845e-06	9.143061e-06
0.27          	8.440568e-08	2.152681e-03	2.902127e-03
0.28          	7.104416e-07	2.992268e-05	5.011166e-05
0.29          	9.079137e-07	2.302158e-05	3.594370e-05
0.3           	8.658983e-07	1.620222e-05	2.040033e-05
0.31          	9.806839e-07	1.169222e-05	1.379393e-05
0.32          	8.665438e-07	8.957759e-06	8.258221e-06
0.33          	9.784936e-07	7.301472e-06	5.697495e-06
0.34          	8.557559e-07	5.937182e-06	2.740384e-06
0.35          	8.147049e-08	4.172430e-03	5.499374e-03
0.36          	7.586245e-07	3.935556e-05	8.110185e-05
0.37          	9.768138e-08	4.293548e-03	3.366614e-03
0.38          	8.291646e-07	1.974266e-05	1.494674e-05
0.39          	1.104782e-07	4.350286e-03	2.840439e-03
0.4           	8.786463e-08	4.028926e-03	2.049462e-03
0.41          	1.094918e-07	1.000364e-03	5.231559e-04
0.42          	6.793381e-07	2.149546e-04	1.131927e-04
0.43          	1.093745e-07	5.120208e-04	3.648547e-04
0.44          	6.874387e-07	2.083906e-04	2.194814e-04
0.45          	1.134800e-07	3.174571e-04	3.373429e-04
0.46          	7.000233e-07	1.123507e-04	8.047722e-05
0.47          	1.182748e-07	1.880153e-04	2.800648e-04
0.48          	7.244976e-07	6.145335e-05	6.285734e-05
0.49          	1.215048e-07	1.440953e-04	2.473402e-04
0.5           	7.590404e-07	3.022700e-05	3.747814e-05
0.51          	1.239724e-07	1.141498e-04	2.051410e-04
0.52          	7.652547e-07	1.877963e-05	2.364524e-05
0.53          	5.808227e-08	1.145683e-04	1.659515e-04
0.54          	8.032389e-07	1.447599e-05	1.946682e-05
0.55          	6.106048e-08	8.722273e-05	1.510078e-04
0.56          	8.173986e-07	1.046839e-05	1.891019e-05
0.57          	6.553855e-08	7.277951e-05	1.822876e-04
0.58          	8.395901e-07	8.324038e-06	2.082522e-05
0.59          	6.549414e-08	7.072624e-05	1.630539e-04
0.6           	8.510043e-07	7.960524e-06	1.737523e-05
0.61          	6.757728e-08	6.712826e-05	1.493110e-04
0.62          	8.947574e-07	6.999203e-06	1.499708e-05
0.63          	6.932396e-08	5.994404e-05	1.407019e-04
0.64          	9.220338e-07	6.678033e-06	1.411263e-05
0.65          	7.136223e-08	5.589571e-05	1.587404e-04
0.66          	9.275449e-07	6.060607e-06	1.533701e-05
0.67          	7.183131e-08	5.450845e-05	1.654135e-04
0.68          	9.453330e-07	5.491201e-06	1.611492e-05
0.69          	7.211095e-08	5.568623e-05	1.506040e-04
0.7           	9.626616e-07	5.382727e-06	1.472891e-05
0.71          	7.194214e-08	5.368657e-05	1.354947e-04
0.72          	9.747257e-07	5.278749e-06	1.359107e-05
0.73          	7.229172e-08	4.891549e-05	1.235638e-04
0.74          	9.905394e-07	5.013370e-06	1.290813e-05
0.75          	7.289568e-08	4.436829e-05	1.312021e-04
0.76          	6.946783e-08	3.616514e-04	1.057080e-03
0.77          	6.937901e-08	3.617132e-05	1.198379e-04
0.78          	5.110706e-08	4.030735e-05	1.139836e-04
0.79          	7.355983e-08	3.844456e-05	1.202147e-04
0.8           	5.223946e-08	4.050950e-05	1.021539e-04
0.81          	7.347009e-08	3.788974e-05	1.122270e-04
0.82          	1.006401e-07	4.056438e-06	1.107809e-05
0.83          	8.521346e-08	4.360099e-05	1.191311e-04
0.84          	9.633222e-08	4.063091e-06	9.768850e-06
0.85          	1.157595e-07	6.922465e-06	1.509892e-05
0.86          	1.223672e-07	5.485549e-06	1.145539e-05
0.87          	1.154141e-07	7.465576e-06	1.522916e-05
0.88          	1.203227e-07	5.604404e-06	1.132898e-05
0.89          	1.138356e-07	7.208243e-06	1.520367e-05
0.9           	1.208641e-07	5.426626e-06	1.148884e-05
0.91          	1.166404e-07	7.090005e-06	1.529463e-05
0.92          	1.231967e-07	5.139957e-06	1.138608e-05
0.93          	1.176648e-07	6.910109e-06	1.494793e-05
0.94          	1.239559e-07	4.925352e-06	1.092138e-05
0.95          	1.167847e-07	7.141621e-06	1.472884e-05
0.96          	1.231675e-07	5.286498e-06	1.094833e-05
0.97          	1.171503e-07	6.499736e-06	1.461997e-05
0.98          	1.234872e-07	5.204623e-06	1.120498e-05
0.99          	1.142024e-07	6.811770e-06	1.483392e-05
1             	1.237793e-07	4.691398e-06	1.114655e-05
1.01          	1.132025e-07	6.279575e-06	1.485337e-05
1.02          	1.235721e-07	4.610013e-06	1.123018e-05
1.03          	1.150133e-07	6.371088e-06	1.473654e-05
1.04          	1.240511e-07	4.541733e-06	1.110641e-05
1.05          	1.190095e-07	6.250479e-06	1.465463e-05
1.06          	1.244034e-07	4.532728e-06	1.103586e-05
1.07          	1.199450e-07	6.190395e-06	1.443938e-05
1.08          	1.249387e-07	4.508923e-06	1.114628e-05
1.09          	1.209153e-07	6.344697e-06	1.493501e-05
1.1           	1.231936e-07	4.548917e-06	1.148566e-05
1.11          	1.162520e-07	6.076321e-06	1.521850e-05
1.12          	1.205190e-07	4.494122e-06	1.164041e-05
1.13          	1.165177e-07	6.163197e-06	1.519842e-05
1.14          	1.161420e-07	4.617103e-05	1.296208e-04
1.15          	1.235205e-07	5.422246e-06	1.481757e-05
1.16          	1.197066e-07	4.232415e-05	1.300934e-04
1.17          	1.233800e-07	5.040121e-06	1.492230e-05
1.18          	1.203680e-07	3.935623e-05	1.332549e-04
1.19          	1.258731e-07	4.666632e-06	1.547890e-05
1.2           	1.188045e-07	3.880277e-05	1.355191e-04
1.21          	1.259256e-07	5.536706e-05	1.709270e-04
1.22          	1.161534e-07	4.467137e-05	1.392851e-04
1.23          	1.248450e-07	5.159847e-05	1.658752e-04
1.24          	1.155837e-07	4.614945e-05	1.374026e-04
1.25          	1.246647e-07	5.051226e-05	1.648702e-04
1.26          	1.152445e-07	4.618400e-05	1.337168e-04
1.27          	1.247730e-07	5.120675e-05	1.655499e-04
1.28          	1.161724e-07	4.591877e-05	1.319389e-04
1.29          	1.173969e-07	5.101935e-05	1.607396e-04
1.3           	7.245237e-07	5.681001e-07	1.013609e-06
1.31          	1.566031e-07	6.792134e-05	1.934670e-04
1.32          	6.862796e-07	5.446672e-07	7.799181e-07
1.33          	1.436952e-07	6.877025e-05	1.708435e-04
1.34          	6.837684e-07	5.843295e-07	8.692069e-07
1.35          	8.345923e-07	8.693091e-07	8.781806e-07
1.36          	8.235754e-07	6.369046e-07	4.253162e-07
1.37          	8.448051e-07	9.338764e-07	5.345826e-07
1.38          	7.926972e-07	7.506220e-07	4.406128e-07
1.39          	8.186581e-07	8.428617e-07	3.930484e-07
1.4           	7.808127e-07	8.288298e-07	4.969691e-07
1.41          	8.232021e-07	7.797996e-07	3.739528e-07
1.42          	7.765068e-07	8.337738e-07	5.118963e-07
1.43          	8.207700e-07	8.195340e-07	4.248611e-07
1.44          	7.772736e-07	8.114248e-07	4.950826e-07
1.45          	7.385575e-07	8.323096e-07	4.401363e-07
1.46          	7.571078e-07	7.787475e-07	5.143385e-07
1.47          	7.320582e-07	8.165822e-07	4.556920e-07
1.48          	1.378135e-07	6.737204e-05	1.539513e-04
1.49          	6.863594e-07	9.525863e-07	1.001116e-06
1.5           	1.121498e-07	4.785495e-06	1.508926e-05
1.51          	7.328040e-07	1.038554e-06	1.330505e-06
1.52          	1.352022e-07	4.781313e-06	1.853162e-05
1.53          	7.331529e-07	9.002429e-07	1.236818e-06
1.54          	1.300982e-07	4.594192e-06	1.636635e-05
1.55          	7.150954e-07	7.678105e-07	1.123435e-06
1.56          	1.238106e-07	4.675615e-06	1.455634e-05
1.57          	7.000707e-07	6.805333e-07	9.860150e-07
1.58          	1.192522e-07	4.890217e-06	1.398941e-05
1.59          	9.394865e-08	4.465844e-05	1.244489e-04
1.6           	8.705318e-08	3.100202e-06	1.008065e-05
1.61          	8.584224e-07	7.540278e-07	1.332668e-06
1.62          	1.428075e-07	4.455491e-06	1.747344e-05
1.63          	9.540385e-08	4.679324e-06	1.410260e-05
1.64          	9.000904e-08	3.120851e-06	1.084200e-05
1.65          	1.148327e-07	3.957962e-06	1.457050e-05
1.66          	1.038705e-07	3.346682e-06	1.227966e-05
1.67          	1.203931e-07	4.157326e-06	1.445958e-05
1.68          	1.055177e-07	3.308679e-06	1.153341e-05
1.69          	1.129759e-07	4.008348e-06	1.346616e-05
1.7           	1.028504e-07	3.176176e-06	1.081907e-05
1.71          	1.122675e-07	3.842398e-06	1.340774e-05
1.72          	1.037405e-07	3.088531e-06	1.076077e-05
1.73          	1.138969e-07	3.634590e-06	1.370004e-05
1.74          	1.041903e-07	2.973517e-06	1.083227e-05
1.75          	1.136688e-07	3.525988e-06	1.377136e-05
1.76          	1.035080e-07	2.839246e-06	1.087433e-05
1.77          	1.129658e-07	3.539696e-06	1.374664e-05
1.78          	1.040358e-07	2.797211e-06	1.107996e-05
1.79          	1.126887e-07	3.534961e-06	1.374595e-05
1.8           	1.025188e-07	2.751072e-06	1.102691e-05
1.81          	1.114807e-07	3.470993e-06	1.360516e-05
1.82          	1.005078e-07	2.680781e-06	1.088417e-05
1.83          	1.100983e-07	3.376287e-06	1.345811e-05
1.84          	9.911684e-08	2.637388e-06	1.073758e-05
1.85          	1.089649e-07	3.301646e-06	1.330491e-05
1.86          	9.762392e-08	2.641676e-06	1.059963e-05
1.87          	1.074143e-07	3.243166e-06	1.315027e-05
1.88          	9.605142e-08	2.617746e-06	1.046124e-05
1.89          	1.054816e-07	3.158825e-06	1.299320e-05
1.9           	9.419824e-08	2.559535e-06	1.035240e-05
1.91          	1.040023e-07	3.078402e-06	1.284009e-05
1.92          	9.259010e-08	2.466288e-06	1.024409e-05
1.93          	1.021630e-07	2.993757e-06	1.271558e-05
1.94          	9.097461e-08	2.377171e-06	1.016994e-05
1.95          	1.003012e-07	2.907212e-06	1.262545e-05
1.96          	8.925287e-08	2.302125e-06	1.011639e-05
1.97          	9.831737e-08	2.838083e-06	1.252506e-05
1.98          	8.749541e-08	2.247778e-06	1.005911e-05
1.99          	9.653365e-08	2.765970e-06	1.242114e-05
2             	8.574949e-08	2.187149e-06	9.964160e-06
2.01          	9.463981e-08	2.679373e-06	1.227615e-05
2.02          	8.392474e-08	2.124293e-06	9.827069e-06
2.03          	9.257032e-08	2.604960e-06	1.210387e-05
2.04          	8.206514e-08	2.084998e-06	9.680786e-06
2.05          	9.044408e-08	2.546660e-06	1.190496e-05
2.06          	8.009182e-08	2.051732e-06	9.528528e-06
2.07          	8.823466e-08	2.497897e-06	1.169763e-05
2.08          	7.810828e-08	2.014386e-06	9.352940e-06
2.09          	8.600743e-08	2.441403e-06	1.146777e-05
2.1           	7.609406e-08	1.963609e-06	9.173706e-06
2.11          	8.371630e-08	2.377091e-06	1.122425e-05
2.12          	7.408075e-08	1.900228e-06	8.991975e-06
2.13          	8.152234e-08	2.305698e-06	1.098953e-05
2.14          	7.196643e-08	1.834967e-06	8.821080e-06
2.15          	7.906430e-08	2.230419e-06	1.077628e-05
2.16          	6.987486e-08	1.772425e-06	8.673117e-06
2.17          	7.672190e-08	2.154327e-06	1.058073e-05
2.18          	6.763218e-08	1.717972e-06	8.517960e-06
2.19          	7.437776e-08	2.082470e-06	1.037806e-05
2.2           	6.538806e-08	1.662391e-06	8.349369e-06
2.21          	7.167335e-08	2.004398e-06	1.014915e-05
2.22          	6.308677e-08	1.602968e-06	8.151198e-06
2.23          	6.917682e-08	1.929593e-06	9.898705e-06
2.24          	6.048165e-08	1.539413e-06	7.921640e-06
2.25          	6.710794e-08	1.869960e-06	9.656421e-06
2.26          	5.829496e-08	1.487534e-06	7.727488e-06
2.27          	6.451328e-08	1.809128e-06	9.379908e-06
2.28          	5.594686e-08	1.444166e-06	7.518745e-06
2.29          	6.197355e-08	1.753862e-06	9.099684e-06
2.3           	5.370092e-08	1.397015e-06	7.287241e-06
2.31          	5.991497e-08	1.726490e-06	8.865144e-06
2.32          	5.109654e-08	1.349027e-06	7.077585e-06
2.33          	5.674049e-08	1.655335e-06	8.562041e-06
2.34          	4.831077e-08	1.294095e-06	6.818238e-06
2.35          	5.273241e-08	1.594450e-06	8.207245e-06
2.36          	4.577589e-08	1.238344e-06	6.565753e-06
2.37          	5.004536e-08	1.535737e-06	7.887457e-06
2.38          	4.323564e-08	1.179861e-06	6.245727e-06
2.39          	4.722384e-08	1.465675e-06	7.542169e-06
2.4           	7.267348e-08	1.062688e-04	6.647602e-04
2.41          	4.443414e-08	1.391235e-06	7.191607e-06
2.42          	9.442723e-07	2.940065e-07	1.106429e-06
2.43          	5.281388e-08	1.719694e-06	9.435744e-06
2.44          	8.772632e-07	2.948142e-07	9.308096e-07
2.45          	7.253469e-08	1.568251e-04	9.015473e-04
2.46          	8.006621e-07	3.083912e-07	9.359089e-07
2.47          	9.082693e-07	2.592355e-07	1.030251e-06
2.48          	7.325265e-07	3.012834e-07	6.854863e-07
2.49          	8.466065e-07	2.677257e-07	8.224240e-07
2.5           	6.631363e-07	3.191453e-07	6.952840e-07
2.51          	7.661338e-07	2.817491e-07	7.359850e-07
2.52          	6.017185e-07	3.447844e-07	7.310218e-07
2.53          	6.980467e-07	3.036155e-07	6.780632e-07
2.54          	5.448260e-07	3.542532e-07	7.309855e-07
2.55          	6.310428e-07	3.174472e-07	6.885927e-07
2.56          	4.939411e-07	3.545114e-07	7.530179e-07
2.57          	5.796496e-07	3.325851e-07	7.410256e-07
2.58          	4.439660e-07	3.605766e-07	7.637179e-07
2.59          	5.285622e-07	3.465754e-07	7.815714e-07
2.6           	1.204464e-07	3.775816e-07	5.640122e-07
2.61          	1.197904e-07	3.653338e-07	5.673716e-07
2.62          	1.047320e-07	3.861410e-07	5.605840e-07
2.63          	1.044079e-07	3.844862e-07	6.066754e-07
2.64          	9.456161e-08	3.909597e-07	5.861617e-07
2.65          	9.308883e-08	3.925268e-07	6.386604e-07
2.66          	8.581786e-08	3.904787e-07	6.292089e-07
2.67          	8.219866e-08	3.986256e-07	6.678207e-07
2.68          	7.855101e-08	3.809786e-07	6.501248e-07
2.69          	7.417224e-08	4.029404e-07	6.728332e-07
2.7           	7.322795e-08	3.768599e-07	6.286122e-07
2.71          	1.053228e-07	4.099397e-07	6.903853e-07
2.72          	1.321837e-07	3.746026e-07	6.288158e-07
2.73          	9.532563e-08	4.091332e-07	6.558671e-07
2.74          	1.375188e-07	3.729535e-07	6.460903e-07
2.75          	1.128826e-07	4.106402e-07	6.848048e-07
2.76          	1.461372e-07	3.681038e-07	6.845461e-07
2.77          	1.389089e-07	4.135187e-07	7.161806e-07
2.78          	1.620344e-07	3.751748e-07	7.330528e-07
2.79          	1.674415e-07	4.316019e-07	7.789113e-07
2.8           	1.892063e-07	3.871127e-07	7.989353e-07
2.81          	1.984132e-07	4.424008e-07	8.358295e-07
2.82          	2.171472e-07	3.956450e-07	8.783409e-07
2.83          	2.305325e-07	4.503033e-07	9.125919e-07
2.84          	2.468192e-07	3.993596e-07	9.397870e-07
2.85          	2.636037e-07	4.546212e-07	9.763593e-07
2.86          	2.766582e-07	4.013463e-07	9.729492e-07
2.87          	2.968661e-07	4.596070e-07	1.053220e-06
2.88          	3.065565e-07	4.063120e-07	1.015339e-06
2.89          	3.296992e-07	4.689878e-07	1.107509e-06
2.9           	3.359402e-07	4.182170e-07	1.062934e-06
2.91          	3.629877e-07	4.850199e-07	1.143553e-06
2.92          	3.650017e-07	4.331118e-07	1.091047e-06
2.93          	3.955029e-07	5.019973e-07	1.180725e-06
2.94          	3.959869e-07	4.484289e-07	1.123934e-06
2.95          	4.543668e-07	4.929491e-07	1.287345e-06
2.96          	4.250305e-07	4.490659e-07	1.150422e-06
2.97          	4.851852e-07	4.992007e-07	1.332097e-06
2.98          	4.632744e-07	4.603207e-07	1.190722e-06
2.99          	5.317886e-07	5.173104e-07	1.432022e-06
3             	4.941665e-07	4.800380e-07	1.266555e-06
3.01          	5.667625e-07	5.387924e-07	1.525191e-06
3.02          	5.177967e-07	5.010048e-07	1.311565e-06
3.03          	6.022374e-07	5.557255e-07	1.599621e-06
3.04          	5.456059e-07	5.157082e-07	1.350719e-06
3.05          	6.354007e-07	5.690115e-07	1.701792e-06
3.06          	5.735669e-07	5.261453e-07	1.404276e-06
3.07          	6.715533e-07	5.792506e-07	1.765352e-06
3.08          	6.022549e-07	5.334858e-07	1.472004e-06
3.09          	7.069416e-07	5.867224e-07	1.819607e-06
3.1           	6.300766e-07	5.391514e-07	1.485477e-06
3.11          	7.415795e-07	5.939416e-07	1.864352e-06
3.12          	6.582122e-07	5.457293e-07	1.507890e-06
3.13          	7.759664e-07	6.010727e-07	1.917747e-06
3.14          	6.875858e-07	5.540572e-07	1.557605e-06
3.15          	8.111297e-07	6.093500e-07	2.001038e-06
3.16          	7.154864e-07	5.642741e-07	1.602213e-06
3.17          	8.455567e-07	6.177168e-07	2.072216e-06
3.18          	7.445819e-07	5.737090e-07	1.644560e-06
3.19          	8.778011e-07	6.255375e-07	2.109729e-06
3.2           	7.709663e-07	5.833375e-07	1.660859e-06
3.21          	9.122563e-07	6.329989e-07	2.188761e-06
3.22          	8.011293e-07	5.938580e-07	1.693966e-06
3.23          	9.080496e-07	6.244576e-07	2.163322e-06
3.24          	8.269535e-07	5.958182e-07	1.731496e-06
3.25          	9.359559e-07	6.345303e-07	2.199797e-06
3.26          	8.556662e-07	6.143075e-07	1.750346e-06
3.27          	9.657482e-07	6.538163e-07	2.247517e-06
3.28          	8.858993e-07	6.368951e-07	1.770214e-06
3.29          	9.907122e-07	6.722185e-07	2.286014e-06
3.3           	9.102931e-07	6.551586e-07	1.798032e-06
3.31          	9.291818e-08	1.766947e-05	6.907409e-05
3.32          	9.131011e-07	7.349943e-07	2.770431e-06
3.33          	5.137353e-07	7.578329e-07	1.743666e-06
3.34          	5.782977e-07	7.167453e-07	1.528568e-06
3.35          	6.889138e-07	7.345905e-07	1.770659e-06
3.36          	4.441366e-07	6.739525e-07	1.133167e-06
3.37          	5.244464e-07	7.003907e-07	1.304653e-06
3.38          	4.425386e-07	6.553366e-07	1.048704e-06
3.39          	5.221463e-07	6.858745e-07	1.210736e-06
3.4           	4.452795e-07	6.576662e-07	1.034129e-06
3.41          	4.677317e-07	7.066957e-07	1.048277e-06
3.42          	4.235425e-07	6.889682e-07	1.003911e-06
3.43          	4.672441e-07	7.287604e-07	1.025750e-06
3.44          	4.430297e-07	7.141129e-07	1.051166e-06
3.45          	5.035969e-07	7.487241e-07	1.110523e-06
3.46          	4.725262e-07	7.237769e-07	1.083799e-06
3.47          	5.217683e-07	7.482125e-07	1.185232e-06
3.48          	4.909451e-07	7.263387e-07	1.182509e-06
3.49          	7.802151e-08	1.931121e-05	7.346100e-05
3.5           	4.129697e-07	7.589723e-07	1.825609e-06
3.51          	6.928626e-08	1.276548e-05	6.299072e-05
3.52          	9.714410e-07	9.322304e-07	1.353533e-05
3.53          	8.857191e-07	8.973682e-07	1.153485e-05
3.54          	9.903135e-07	9.019501e-07	9.929564e-06
3.55          	8.320823e-07	8.095925e-07	2.081939e-06
3.56          	9.952386e-07	9.178720e-07	8.933083e-06
3.57          	8.239144e-07	7.915087e-07	1.934749e-06
3.58          	8.183623e-08	1.801223e-06	6.512252e-06
3.59          	7.497187e-07	7.700263e-07	2.601683e-06
3.6           	7.675618e-08	1.175905e-06	4.854968e-06
3.61          	7.792467e-07	7.610980e-07	2.652294e-06
3.62          	8.958283e-08	1.455626e-06	6.076306e-06
3.63          	7.865440e-07	7.601155e-07	2.716825e-06
3.64          	9.168651e-08	1.469043e-06	6.367324e-06
3.65          	8.894044e-08	1.219393e-05	7.389631e-05
3.66          	6.949924e-08	1.096780e-06	4.565831e-06
3.67          	7.004955e-08	1.410731e-06	6.296568e-06
3.68          	7.505804e-08	1.135922e-06	4.941662e-06
3.69          	7.291338e-08	1.420533e-06	6.504631e-06
3.7           	7.845432e-08	1.133963e-06	4.933286e-06
3.71          	4.330848e-08	8.024608e-06	4.247996e-05
3.72          	9.582580e-08	7.015842e-06	5.598655e-05
3.73          	9.353172e-08	1.219426e-05	7.820144e-05
3.74          	6.862326e-07	1.249374e-06	1.870697e-05
3.75          	9.420364e-08	1.221652e-05	7.902512e-05
3.76          	7.746885e-07	1.255417e-06	2.068187e-05
3.77          	9.428513e-08	1.165621e-05	7.664957e-05
3.78          	7.125480e-07	1.210292e-06	1.822638e-05
3.79          	1.044732e-07	1.165022e-05	7.961940e-05
3.8           	7.158255e-07	1.192152e-06	1.837021e-05
3.81          	4.069901e-08	7.740868e-06	4.553479e-05
3.82          	7.405700e-07	1.028525e-06	1.980883e-05
3.83          	4.580674e-08	7.593678e-06	3.934625e-05
3.84          	7.803727e-07	1.086347e-06	2.117645e-05
3.85          	4.896745e-08	8.033404e-06	4.240754e-05
3.86          	7.799742e-07	1.133264e-06	2.069067e-05
3.87          	4.250493e-08	7.964445e-06	4.229655e-05
3.88          	7.586654e-07	1.115811e-06	1.971032e-05
3.89          	4.506470e-08	7.583910e-06	4.648711e-05
3.9           	7.872758e-07	1.111656e-06	2.029087e-05
3.91          	4.628789e-08	7.595261e-06	4.721008e-05
3.92          	9.227863e-08	7.720890e-05	5.972779e-04
3.93          	8.180073e-08	1.124637e-05	8.099819e-05
3.94          	9.873471e-07	8.833726e-07	7.375363e-06
3.95          	1.061890e-07	1.671802e-05	1.049773e-04
3.96          	9.558956e-07	9.316301e-07	7.064886e-06
3.97          	9.187995e-08	1.661670e-05	9.529748e-05
3.98          	9.716744e-07	8.636677e-07	6.918494e-06
3.99          	4.133307e-07	1.776322e-06	1.634537e-05
4             	1.896113e-07	1.279184e-06	7.813707e-06
4.01          	3.893787e-07	1.419791e-06	1.470243e-05
4.02          	2.044303e-07	1.264556e-06	8.561618e-06
4.03          	3.823697e-07	1.509872e-06	1.474827e-05
4.04          	8.501012e-07	8.042545e-07	4.119767e-06
4.05          	1.093238e-07	1.807856e-04	1.175436e-03
4.06          	9.999350e-07	8.679778e-07	3.000955e-06
4.07          	9.412648e-08	2.060341e-04	1.084910e-03
4.08          	9.092162e-07	8.728301e-07	8.576621e-06
4.09          	9.965753e-07	7.797715e-07	3.806160e-06
4.1           	8.782996e-07	8.777346e-07	2.347838e-06
4.11          	9.304371e-07	9.944724e-07	5.737481e-06
4.12          	8.910309e-07	9.567082e-07	1.981010e-06
4.13          	9.289447e-07	1.128848e-06	8.557539e-06
4.14          	8.823871e-07	9.888607e-07	2.204434e-06
4.15          	9.452601e-07	9.193524e-07	3.052977e-06
4.16          	8.173741e-07	9.440167e-07	2.120850e-06
4.17          	9.268442e-07	8.649612e-07	3.144313e-06
4.18          	2.052682e-07	3.581018e-06	1.138975e-05
4.19          	7.713379e-08	2.590643e-05	7.226049e-05
4.2           	9.482995e-07	7.879029e-07	8.301215e-06
4.21          	3.678632e-07	2.202341e-06	1.482989e-05
4.22          	9.314269e-07	7.992173e-07	7.956598e-06
4.23          	1.137345e-07	2.548833e-05	1.514511e-04
4.24          	9.628836e-07	8.811295e-07	7.414172e-06
4.25          	1.011997e-07	2.897520e-05	1.429964e-04
4.26          	9.544214e-07	9.284510e-07	6.465205e-06
4.27          	9.396735e-08	3.260418e-05	1.262934e-04
4.28          	9.705664e-07	9.667970e-07	6.020257e-06
4.29          	9.416880e-08	2.821033e-05	1.204916e-04
4.3           	7.352606e-07	2.370046e-06	1.842261e-05
4.31          	1.006976e-07	1.888060e-05	9.865933e-05
4.32          	9.358640e-07	1.620449e-06	2.313087e-05
4.33          	1.180776e-07	2.102590e-05	1.146855e-04
4.34          	9.605860e-07	1.925169e-06	2.459962e-05
4.35          	1.141678e-07	1.926389e-05	1.132347e-04
4.36          	9.652551e-07	1.688224e-06	2.410844e-05
4.37          	1.092825e-07	2.007409e-05	1.086071e-04
4.38          	1.005015e-06	1.802247e-06	2.384667e-05
4.39          	9.872871e-08	1.687121e-05	8.581361e-05
4.4           	7.545294e-07	1.588495e-06	1.862969e-05
4.41          	1.049997e-07	2.127420e-05	1.142079e-04
4.42          	7.283362e-07	1.858868e-06	1.784692e-05
4.43          	1.011136e-07	2.264656e-05	1.094822e-04
4.44          	7.685650e-07	2.181149e-06	1.779616e-05
4.45          	9.924664e-08	2.230665e-05	1.084855e-04
4.46          	7.615316e-07	2.140665e-06	1.769084e-05
4.47          	1.005032e-07	2.195290e-05	1.096328e-04
4.48          	7.624729e-07	2.078447e-06	1.775476e-05
4.49          	1.031555e-07	2.196339e-05	1.113825e-04
4.5           	7.568884e-07	2.090350e-06	1.765267e-05
4.51          	9.662564e-08	2.242586e-05	1.099684e-04
4.52          	7.397381e-07	2.142272e-06	1.710813e-05
4.53          	9.672420e-08	2.286806e-05	1.105227e-04
4.54          	7.399357e-07	2.207993e-06	1.693981e-05
4.55          	4.035787e-08	2.382579e-05	6.410664e-05
4.56          	8.034204e-08	1.469460e-06	5.583013e-06
4.57          	1.214878e-07	1.961182e-05	1.119830e-04
4.58          	1.030443e-07	1.836881e-06	9.047698e-06
4.59          	9.025833e-07	1.063473e-06	2.289069e-06
4.6           	1.466643e-07	3.934822e-06	1.463709e-05
4.61          	8.135136e-08	5.650389e-06	1.327327e-05
4.62          	9.132792e-08	4.687876e-06	8.628067e-06
4.63          	1.044446e-07	4.299393e-06	1.035897e-05
4.64          	1.130732e-07	3.327438e-06	8.335153e-06
4.65          	1.075867e-07	3.998156e-06	1.041030e-05
4.66          	1.228765e-07	2.899368e-06	8.395308e-06
4.67          	1.167865e-07	3.315790e-06	1.142995e-05
4.68          	1.222432e-07	2.607753e-06	8.662601e-06
4.69          	1.108244e-07	3.198234e-06	1.149538e-05
4.7           	1.359838e-07	2.728007e-06	9.161278e-06
4.71          	1.229414e-07	3.442908e-06	1.276872e-05
4.72          	1.306508e-07	2.796139e-06	9.462139e-06
4.73          	1.221559e-07	3.460479e-06	1.267555e-05
4.74          	1.307705e-07	2.872538e-06	9.541537e-06
4.75          	1.251879e-07	3.406466e-06	1.295562e-05
4.76          	1.334793e-07	2.824916e-06	9.683324e-06
4.77          	1.232531e-07	3.544183e-06	1.288935e-05
4.78          	1.331954e-07	3.261800e-06	1.007132e-05
4.79          	1.258876e-07	3.587579e-06	1.265604e-05
4.8           	1.164052e-07	3.625046e-05	1.050139e-04
4.81          	1.291295e-07	3.442967e-06	1.165735e-05
4.82          	1.214228e-07	3.508322e-05	1.040767e-04
4.83          	1.349690e-07	3.751753e-06	1.141715e-05
4.84          	1.271060e-07	3.428388e-05	9.917866e-05
4.85          	1.128949e-07	3.193157e-05	1.053240e-04
4.86          	1.256186e-07	3.786942e-05	1.022987e-04
4.87          	1.137441e-07	3.419169e-05	1.034250e-04
4.88          	1.280874e-07	4.929168e-05	1.055181e-04
4.89          	1.163711e-07	3.666872e-05	1.085746e-04
4.9           	1.289457e-07	4.748238e-05	1.050744e-04
4.91          	1.178039e-07	3.195361e-05	1.057361e-04
4.92          	6.968716e-07	1.270546e-06	2.633990e-06
4.93          	1.582608e-07	4.598710e-05	1.451963e-04
4.94          	6.445406e-07	1.288207e-06	2.472705e-06
4.95          	6.897637e-07	1.467193e-06	2.141259e-06
4.96          	8.589238e-07	1.450390e-06	1.743873e-06
4.97          	7.271574e-07	1.406406e-06	1.759279e-06
4.98          	8.366240e-07	1.491454e-06	1.704117e-06
4.99          	6.949417e-07	1.305038e-06	1.634621e-06
5             	8.015239e-07	1.392624e-06	1.773415e-06
5.01          	6.734526e-07	1.075503e-06	1.569098e-06
5.02          	7.867126e-07	9.654212e-07	1.714871e-06
5.03          	6.698941e-07	9.844046e-07	1.654593e-06
5.04          	7.809895e-07	8.432835e-07	1.718128e-06
5.05          	6.731504e-07	9.130387e-07	1.745016e-06
5.06          	7.756391e-07	7.424153e-07	1.654479e-06
5.07          	6.741148e-07	8.337705e-07	1.750792e-06
5.08          	7.780856e-07	7.066806e-07	1.469745e-06
5.09          	6.651719e-07	7.916414e-07	1.651459e-06
5.1           	9.815395e-07	7.435090e-07	1.305505e-06
5.11          	6.915480e-07	8.535528e-07	1.728972e-06
5.12          	1.368844e-07	1.035149e-05	1.663711e-05
5.13          	5.373868e-07	1.389190e-06	3.040974e-06
5.14          	1.476425e-07	3.986373e-05	1.269563e-04
5.15          	5.927477e-07	1.551082e-06	3.401321e-06
5.16          	1.748109e-07	3.772391e-06	1.463172e-05
5.17          	5.937053e-07	1.366115e-06	2.972085e-06
5.18          	1.655920e-07	4.730010e-06	1.298610e-05
5.19          	5.741832e-07	1.275151e-06	2.296546e-06
5.2           	1.486787e-07	5.151108e-06	1.259697e-05
5.21          	5.596054e-07	1.307350e-06	1.785777e-06
5.22          	1.495988e-07	4.643630e-06	1.254443e-05
5.23          	9.442747e-07	1.336240e-06	2.102950e-06
5.24          	1.658214e-07	3.515321e-06	1.085025e-05
5.25          	6.924498e-07	1.471918e-06	2.143816e-06
5.26          	1.668054e-07	4.204532e-06	1.264555e-05
5.27          	1.064749e-07	5.971212e-06	9.799005e-06
5.28          	1.287161e-07	2.725774e-06	7.404116e-06
5.29          	1.296840e-07	3.510340e-06	8.572343e-06
5.3           	1.566654e-07	2.399777e-06	8.514067e-06
5.31          	1.498627e-07	3.639862e-06	9.219886e-06
5.32          	1.621921e-07	2.383929e-06	7.801546e-06
5.33          	1.486163e-07	3.518194e-06	8.643118e-06
5.34          	1.605000e-07	2.500031e-06	6.874328e-06
5.35          	1.456961e-07	3.424032e-06	8.111966e-06
5.36          	1.595220e-07	2.460288e-06	6.506232e-06
5.37          	1.494191e-07	3.219254e-06	7.874594e-06
5.38          	1.607583e-07	2.257583e-06	6.441155e-06
5.39          	1.488139e-07	3.046721e-06	7.884162e-06
5.4           	1.576982e-07	2.118662e-06	6.318650e-06
5.41          	1.509415e-07	3.017106e-06	7.986162e-06
5.42          	1.558560e-07	2.081594e-06	6.350058e-06
5.43          	1.497708e-07	2.868831e-06	7.888621e-06
5.44          	1.528011e-07	2.043070e-06	6.282688e-06
5.45          	1.461263e-07	2.693283e-06	7.605133e-06
5.46          	1.507536e-07	1.950151e-06	6.069735e-06
5.47          	1.448822e-07	2.523706e-06	7.509920e-06
5.48          	1.498167e-07	1.939399e-06	5.982393e-06
5.49          	1.445382e-07	2.542794e-06	7.383237e-06
5.5           	1.495835e-07	1.991982e-06	5.860725e-06
5.51          	1.446049e-07	2.539333e-06	7.139535e-06
5.52          	1.505194e-07	1.977536e-06	5.693602e-06
5.53          	1.457029e-07	2.464844e-06	6.892093e-06