# Forces      
# CofR        : (0.000000e+00 0.000000e+00 0.000000e+00)
# Time        forces(pressure viscous)	moments(pressure viscous)
0             	((1.026971e+03 -6.950796e+06 -4.325215e-12) (0.000000e+00 0.000000e+00 0.000000e+00)) ((-3.475398e+06 -5.134857e+02 -7.673480e+04) (0.000000e+00 0.000000e+00 0.000000e+00))
0.01          	((-5.550705e+02 3.696750e+05 2.935648e-13) (-1.949707e-04 -1.182262e-03 1.956830e-17)) ((1.848375e+05 2.775353e+02 4.166170e+04) (-5.911308e-04 9.748533e-05 1.512104e-02))
0.02          	((-1.955334e+02 3.954032e+05 3.144878e-13) (3.350205e-06 3.417831e-04 -1.553480e-17)) ((1.977016e+05 9.776672e+01 1.470029e+04) (1.708915e-04 -1.675103e-06 -5.774871e-04))
0.03          	((1.371400e+03 3.868000e+05 3.079429e-13) (-1.244144e-05 -7.454699e-04 2.803048e-17)) ((1.934000e+05 -6.856999e+02 -1.028221e+05) (-3.727350e-04 6.220720e-06 1.290047e-03))
0.04          	((-8.730416e+02 3.907906e+05 3.106259e-13) (-9.922191e-06 3.530864e-04 -2.803043e-17)) ((1.953953e+05 4.365208e+02 6.551266e+04) (1.765432e-04 4.961096e-06 5.435993e-04))
0.05          	((2.277732e+02 3.894674e+05 3.098380e-13) (-4.633517e-06 -3.636153e-04 1.553496e-17)) ((1.947337e+05 -1.138866e+02 -1.704953e+04) (-1.818077e-04 2.316758e-06 6.465900e-04))
0.06          	((-2.847756e+02 3.902491e+05 3.102635e-13) (7.280261e-06 4.240553e-04 -1.956788e-17)) ((1.951246e+05 1.423878e+02 2.139207e+04) (2.120277e-04 -3.640130e-06 -6.350835e-04))
0.07          	((1.921388e+02 3.886169e+05 3.089307e-13) (-7.457745e-06 -4.003598e-05 9.164054e-23)) ((1.943085e+05 -9.606938e+01 -1.437682e+04) (-2.001799e-05 3.728873e-06 7.216373e-04))
0.08          	((-2.340275e+02 3.839865e+05 3.054012e-13) (8.487066e-06 4.483814e-04 3.206382e-17)) ((1.919932e+05 1.170138e+02 1.758538e+04) (2.241907e-04 -4.243533e-06 -6.680406e-04))
0.09          	((2.213766e+01 3.847171e+05 3.058358e-13) (-4.021530e-06 1.150217e-04 1.199529e-22)) ((1.923585e+05 -1.106883e+01 -1.627034e+03) (5.751087e-05 2.010765e-06 3.335790e-04))
0.1           	((-2.084745e+02 3.846758e+05 3.058732e-13) (3.931821e-06 4.896921e-04 1.757414e-22)) ((1.923379e+05 1.042372e+02 1.566890e+04) (2.448460e-04 -1.965910e-06 -2.630057e-04))
0.11          	((-2.351342e+00 3.848254e+05 3.059092e-13) (-1.598095e-06 2.177577e-04 -2.803031e-17)) ((1.924127e+05 1.175671e+00 2.097275e+02) (1.088789e-04 7.990477e-07 1.159367e-04))
0.12          	((-1.147812e+01 3.848225e+05 3.059981e-13) (2.659801e-06 5.576559e-04 4.894701e-23)) ((1.924112e+05 5.739058e+00 8.940782e+02) (2.788279e-04 -1.329901e-06 -1.025576e-04))
0.13          	((9.415181e+01 3.852177e+05 3.062282e-13) (-3.594940e-08 3.046427e-04 2.803070e-17)) ((1.926089e+05 -4.707591e+01 -7.027988e+03) (1.523214e-04 1.797470e-08 -6.910815e-05))
0.14          	((-5.503459e+01 3.854435e+05 3.065146e-13) (2.869956e-06 6.500128e-04 -3.206304e-17)) ((1.927218e+05 2.751729e+01 4.160895e+03) (3.250064e-04 -1.434978e-06 -1.201998e-04))
0.15          	((5.859764e+01 3.860721e+05 3.069153e-13) (1.829817e-06 3.963143e-04 3.206339e-17)) ((1.930360e+05 -2.929882e+01 -4.361303e+03) (1.981571e-04 -9.149084e-07 -2.438315e-04))
0.16          	((-1.334955e+02 3.865399e+05 3.074081e-13) (2.941162e-06 7.601901e-04 2.922771e-22)) ((1.932700e+05 6.674773e+01 1.004554e+04) (3.800950e-04 -1.470581e-06 -1.415354e-04))
0.17          	((4.674436e+01 3.872652e+05 3.078602e-13) (2.370343e-06 5.094686e-04 -2.803047e-17)) ((1.936326e+05 -2.337218e+01 -3.472201e+03) (2.547343e-04 -1.185172e-06 -3.155832e-04))
0.18          	((-1.209285e+02 3.874683e+05 3.081588e-13) (2.754319e-06 8.986956e-04 -4.032024e-18)) ((1.937342e+05 6.046426e+01 9.103042e+03) (4.493478e-04 -1.377160e-06 -1.491471e-04))
0.19          	((7.763220e+01 3.880620e+05 3.084741e-13) (3.195637e-06 6.277674e-04 1.956700e-17)) ((1.940310e+05 -3.881610e+01 -5.788699e+03) (3.138837e-04 -1.597819e-06 -3.893083e-04))
0.2           	((-8.061197e+01 3.879477e+05 3.085356e-13) (2.622082e-06 1.055970e-03 4.685952e-22)) ((1.939739e+05 4.030598e+01 6.079280e+03) (5.279850e-04 -1.311041e-06 -1.721469e-04))
0.21          	((1.004692e+02 3.883194e+05 3.086384e-13) (4.571174e-06 7.376226e-04 1.249609e-17)) ((1.941597e+05 -5.023462e+01 -7.501424e+03) (3.688113e-04 -2.285587e-06 -4.699935e-04))
0.22          	((-1.030212e+02 3.880113e+05 3.085894e-13) (2.322633e-06 1.227248e-03 1.228359e-22)) ((1.940057e+05 5.151058e+01 7.759904e+03) (6.136239e-04 -1.161317e-06 -2.066704e-04))
0.23          	((9.239276e+01 3.882309e+05 3.085169e-13) (4.900532e-06 8.350155e-04 -2.803034e-17)) ((1.941154e+05 -4.619638e+01 -6.895668e+03) (4.175077e-04 -2.450266e-06 -4.527817e-04))
0.24          	((-1.503053e+02 3.877555e+05 3.084107e-13) (2.212775e-07 1.407533e-03 2.803125e-17)) ((1.938777e+05 7.515266e+01 1.130609e+04) (7.037665e-04 -1.106387e-07 -1.280450e-04))
0.25          	((9.426834e+01 3.879337e+05 3.082336e-13) (4.543790e-06 9.147752e-04 -3.206181e-17)) ((1.939669e+05 -4.713417e+01 -7.036352e+03) (4.573876e-04 -2.271895e-06 -3.755580e-04))
0.26          	((-1.700109e+02 3.873531e+05 3.081327e-13) (-1.734221e-06 1.600424e-03 1.956727e-17)) ((1.936766e+05 8.500544e+01 1.278390e+04) (8.002122e-04 8.671107e-07 -1.194369e-04))
0.27          	((6.376256e+01 3.880862e+05 3.084309e-13) (-5.967979e-06 1.476164e-03 -1.956649e-17)) ((1.940431e+05 -3.188128e+01 -4.749108e+03) (7.380819e-04 2.983990e-06 2.418584e-04))
0.28          	((-4.081374e+01 3.870205e+05 3.078975e-13) (-7.486126e-06 1.675901e-03 4.031977e-18)) ((1.935102e+05 2.040687e+01 3.094540e+03) (8.379504e-04 3.743063e-06 2.921488e-04))
0.29          	((3.943077e+01 3.866602e+05 3.073719e-13) (-7.747587e-06 1.510434e-03 2.005252e-22)) ((1.933301e+05 -1.971538e+01 -2.923605e+03) (7.552172e-04 3.873794e-06 4.280071e-04))
0.3           	((-1.658857e+02 3.853499e+05 3.065394e-13) (-8.267395e-06 1.706890e-03 2.803149e-17)) ((1.926750e+05 8.294287e+01 1.247444e+04) (8.534448e-04 4.133697e-06 3.893629e-04))
0.31          	((9.074507e+01 3.851780e+05 3.060685e-13) (-6.854622e-06 1.529153e-03 -3.206167e-17)) ((1.925890e+05 -4.537253e+01 -6.772354e+03) (7.645764e-04 3.427311e-06 3.702805e-04))
0.32          	((-1.257169e+02 3.843609e+05 3.056307e-13) (-7.137678e-06 1.700418e-03 1.956669e-17)) ((1.921805e+05 6.285847e+01 9.461664e+03) (8.502091e-04 3.568839e-06 2.741371e-04))
0.33          	((1.539086e+02 3.850377e+05 3.058736e-13) (-5.130878e-06 1.576241e-03 -1.956555e-17)) ((1.925188e+05 -7.695429e+01 -1.150956e+04) (7.881205e-04 2.565439e-06 2.975318e-04))
0.34          	((-1.594034e+02 3.850763e+05 3.061625e-13) (-7.725069e-06 1.743303e-03 3.206242e-17)) ((1.925381e+05 7.970168e+01 1.198808e+04) (8.716513e-04 3.862534e-06 3.285577e-04))
0.35          	((-1.761743e+02 3.959342e+05 3.146157e-13) (-1.363941e-05 1.822906e-03 -1.249591e-17)) ((1.979671e+05 8.808716e+01 1.324600e+04) (9.114530e-04 6.819705e-06 7.958231e-04))
0.36          	((-1.244476e+01 3.928113e+05 3.124522e-13) (-1.453716e-05 1.992628e-03 -1.956547e-17)) ((1.964056e+05 6.222380e+00 9.676005e+02) (9.963141e-04 7.268581e-06 8.306233e-04))
0.37          	((7.242962e+02 3.856011e+05 3.061593e-13) (-7.704092e-06 1.970736e-03 6.341341e-22)) ((1.928005e+05 -3.621481e+02 -5.428699e+04) (9.853682e-04 3.852046e-06 3.441185e-04))
0.38          	((-1.545574e+02 3.849676e+05 3.062138e-13) (-4.169529e-06 2.026053e-03 3.206233e-17)) ((1.924838e+05 7.727870e+01 1.162484e+04) (1.013026e-03 2.084765e-06 7.089010e-05))
0.39          	((-1.770211e+02 3.886880e+05 3.087517e-13) (-1.045776e-05 2.058101e-03 -1.249564e-17)) ((1.943440e+05 8.851055e+01 1.330883e+04) (1.029051e-03 5.228882e-06 5.615084e-04))
0.4           	((8.245971e+00 3.871875e+05 3.076900e-13) (-9.161466e-06 2.102237e-03 5.187193e-22)) ((1.935938e+05 -4.122986e+00 -5.852315e+02) (1.051118e-03 4.580733e-06 4.481740e-04))
0.41          	((1.690113e+02 3.867466e+05 3.073916e-13) (-7.598834e-06 2.136096e-03 1.249652e-17)) ((1.933733e+05 -8.450567e+01 -1.264169e+04) (1.068048e-03 3.799417e-06 3.450991e-04))
0.42          	((-1.109038e+02 3.861762e+05 3.069671e-13) (-1.001912e-05 2.169971e-03 -2.803043e-17)) ((1.930881e+05 5.545189e+01 8.350491e+03) (1.084986e-03 5.009558e-06 5.354152e-04))
0.43          	((8.725696e+01 3.859934e+05 3.067748e-13) (-1.046608e-05 2.201374e-03 1.553563e-17)) ((1.929967e+05 -4.362848e+01 -6.510646e+03) (1.100687e-03 5.233042e-06 5.799746e-04))
0.44          	((-1.786130e+02 3.878332e+05 3.082865e-13) (-1.264770e-05 2.254932e-03 -1.553448e-17)) ((1.939166e+05 8.930648e+01 1.342837e+04) (1.127466e-03 6.323849e-06 7.410226e-04))
0.45          	((1.514111e+02 3.876113e+05 3.080439e-13) (-1.134338e-05 2.300541e-03 1.959389e-22)) ((1.938056e+05 -7.570556e+01 -1.132167e+04) (1.150271e-03 5.671690e-06 6.468333e-04))
0.46          	((-1.535276e+02 3.877600e+05 3.081979e-13) (-1.329381e-05 2.350160e-03 -4.030178e-18)) ((1.938800e+05 7.676382e+01 1.154702e+04) (1.175080e-03 6.646903e-06 7.912270e-04))
0.47          	((1.178462e+02 3.876890e+05 3.080893e-13) (-1.251854e-05 2.396811e-03 1.084491e-21)) ((1.938445e+05 -5.892309e+01 -8.804451e+03) (1.198405e-03 6.259269e-06 7.373256e-04))
0.48          	((-1.304232e+02 3.872580e+05 3.077871e-13) (-1.418888e-05 2.440481e-03 3.206242e-17)) ((1.936290e+05 6.521159e+01 9.814182e+03) (1.220240e-03 7.094442e-06 8.610170e-04))
0.49          	((1.251696e+02 3.874977e+05 3.079256e-13) (-1.327830e-05 2.484692e-03 8.953426e-22)) ((1.937489e+05 -6.258481e+01 -9.353651e+03) (1.242346e-03 6.639151e-06 7.963591e-04))
0.5           	((-1.524140e+02 3.870675e+05 3.076258e-13) (-1.511846e-05 2.524279e-03 -2.803057e-17)) ((1.935337e+05 7.620701e+01 1.146325e+04) (1.262139e-03 7.559232e-06 9.331961e-04))
0.51          	((1.484043e+02 3.874141e+05 3.078451e-13) (-1.390708e-05 2.567186e-03 1.553550e-17)) ((1.937071e+05 -7.420213e+01 -1.109606e+04) (1.283593e-03 6.953538e-06 8.454378e-04))
0.52          	((-1.551279e+02 3.870223e+05 3.075827e-13) (-1.576177e-05 2.605295e-03 1.249709e-17)) ((1.935111e+05 7.756397e+01 1.166667e+04) (1.302648e-03 7.880885e-06 9.832638e-04))
0.53          	((1.359638e+02 3.885227e+05 3.086647e-13) (-1.370370e-05 2.667086e-03 -3.206081e-17)) ((1.942614e+05 -6.798188e+01 -1.016313e+04) (1.333543e-03 6.851849e-06 8.176841e-04))
0.54          	((-1.414162e+02 3.877689e+05 3.082233e-13) (-1.549914e-05 2.704586e-03 6.392733e-22)) ((1.938844e+05 7.070810e+01 1.063847e+04) (1.352293e-03 7.749568e-06 9.562550e-04))
0.55          	((1.602255e+02 3.881686e+05 3.083922e-13) (-1.356039e-05 2.759170e-03 5.959526e-22)) ((1.940843e+05 -8.011273e+01 -1.198249e+04) (1.379585e-03 6.780194e-06 8.055481e-04))
0.56          	((-1.475096e+02 3.872164e+05 3.077694e-13) (-1.568101e-05 2.788895e-03 4.031445e-18)) ((1.936082e+05 7.375481e+01 1.109526e+04) (1.394447e-03 7.840504e-06 9.716845e-04))
0.57          	((1.516299e+02 3.878986e+05 3.081482e-13) (-1.399117e-05 2.839766e-03 1.553579e-17)) ((1.939493e+05 -7.581496e+01 -1.133786e+04) (1.419883e-03 6.995587e-06 8.398315e-04))
0.58          	((-1.648567e+02 3.871322e+05 3.076795e-13) (-1.633616e-05 2.867220e-03 6.080278e-22)) ((1.935661e+05 8.242836e+01 1.239601e+04) (1.433610e-03 8.168080e-06 1.023262e-03))
0.59          	((1.550237e+02 3.880371e+05 3.082388e-13) (-1.459518e-05 2.917960e-03 -1.956481e-17)) ((1.940185e+05 -7.751187e+01 -1.159228e+04) (1.458980e-03 7.297590e-06 8.874148e-04))
0.6           	((-1.695637e+02 3.872984e+05 3.077947e-13) (-1.691016e-05 2.945944e-03 4.030744e-18)) ((1.936492e+05 8.478187e+01 1.274889e+04) (1.472972e-03 8.455081e-06 1.068640e-03))
0.61          	((1.631466e+02 3.882470e+05 3.083956e-13) (-1.505497e-05 2.996980e-03 2.803202e-17)) ((1.941235e+05 -8.157330e+01 -1.220133e+04) (1.498490e-03 7.527486e-06 9.239005e-04))
0.62          	((-1.721711e+02 3.874556e+05 3.079145e-13) (-1.736801e-05 3.024491e-03 -2.803111e-17)) ((1.937278e+05 8.608556e+01 1.294428e+04) (1.512246e-03 8.684005e-06 1.105407e-03))
0.63          	((1.698690e+02 3.883649e+05 3.084782e-13) (-1.530396e-05 3.075363e-03 1.553553e-17)) ((1.941825e+05 -8.493452e+01 -1.270535e+04) (1.537681e-03 7.651981e-06 9.445539e-04))
0.64          	((-1.755738e+02 3.875073e+05 3.079436e-13) (-1.752861e-05 3.101886e-03 1.249755e-17)) ((1.937537e+05 8.778691e+01 1.319931e+04) (1.550943e-03 8.764305e-06 1.119140e-03))
0.65          	((1.747134e+02 3.883888e+05 3.084849e-13) (-1.538919e-05 3.151097e-03 -3.206077e-17)) ((1.941944e+05 -8.735669e+01 -1.306853e+04) (1.575549e-03 7.694595e-06 9.522324e-04))
0.66          	((-1.791989e+02 3.874913e+05 3.079183e-13) (-1.760187e-05 3.175800e-03 4.030928e-18)) ((1.937457e+05 8.959947e+01 1.347099e+04) (1.587900e-03 8.800936e-06 1.126192e-03))
0.67          	((1.792322e+02 3.883764e+05 3.084574e-13) (-1.541179e-05 3.223202e-03 2.803187e-17)) ((1.941882e+05 -8.961609e+01 -1.340729e+04) (1.611601e-03 7.705895e-06 9.555464e-04))
0.68          	((-1.836417e+02 3.874669e+05 3.078830e-13) (-1.767141e-05 3.245788e-03 -1.249478e-17)) ((1.937335e+05 9.182084e+01 1.380398e+04) (1.622894e-03 8.835703e-06 1.133472e-03))
0.69          	((1.849760e+02 3.883947e+05 3.084522e-13) (-1.541995e-05 3.291793e-03 -1.553412e-17)) ((1.941974e+05 -9.248800e+01 -1.383789e+04) (1.645896e-03 7.709974e-06 9.581529e-04))
0.7           	((-1.873640e+02 3.874892e+05 3.078881e-13) (-1.774836e-05 3.312428e-03 9.628467e-22)) ((1.937446e+05 9.368201e+01 1.408293e+04) (1.656214e-03 8.874181e-06 1.141719e-03))
0.71          	((1.907358e+02 3.884672e+05 3.084909e-13) (-1.540780e-05 3.357614e-03 -4.029978e-18)) ((1.942336e+05 -9.536788e+01 -1.426967e+04) (1.678807e-03 7.703901e-06 9.595720e-04))
0.72          	((-1.903358e+02 3.875618e+05 3.079320e-13) (-1.774028e-05 3.377171e-03 3.206258e-17)) ((1.937809e+05 9.516788e+01 1.430560e+04) (1.688586e-03 8.870142e-06 1.143566e-03))
0.73          	((1.942733e+02 3.885746e+05 3.085623e-13) (-1.531874e-05 3.421740e-03 -3.206084e-17)) ((1.942873e+05 -9.713666e+01 -1.453481e+04) (1.710870e-03 7.659368e-06 9.548698e-04))
0.74          	((-1.933027e+02 3.876584e+05 3.079937e-13) (-1.761316e-05 3.440716e-03 1.615426e-21)) ((1.938292e+05 9.665136e+01 1.452791e+04) (1.720358e-03 8.806580e-06 1.135966e-03))
0.75          	((1.963549e+02 3.886676e+05 3.086216e-13) (-1.516414e-05 3.484425e-03 1.956609e-17)) ((1.943338e+05 -9.817746e+01 -1.469077e+04) (1.742213e-03 7.582069e-06 9.448457e-04))
0.76          	((-1.041374e+02 3.880571e+05 3.082420e-13) (-1.619298e-05 3.516237e-03 -1.553399e-17)) ((1.940286e+05 5.206872e+01 7.841572e+03) (1.758118e-03 8.096488e-06 1.023887e-03))
0.77          	((1.249906e+02 3.886928e+05 3.086942e-13) (-1.464864e-05 3.550077e-03 -4.029509e-18)) ((1.943464e+05 -6.249530e+01 -9.339299e+03) (1.775039e-03 7.324320e-06 9.049298e-04))
0.78          	((-1.607400e+02 3.881141e+05 3.082507e-13) (-1.626986e-05 3.578483e-03 1.956578e-17)) ((1.940570e+05 8.036998e+01 1.208569e+04) (1.789242e-03 8.134928e-06 1.026865e-03))
0.79          	((1.575949e+02 3.886601e+05 3.086561e-13) (-1.436446e-05 3.610539e-03 -1.553422e-17)) ((1.943300e+05 -7.879745e+01 -1.178397e+04) (1.805269e-03 7.182229e-06 8.843698e-04))
0.8           	((-1.460339e+02 3.880934e+05 3.082101e-13) (-1.584005e-05 3.636987e-03 1.553645e-17)) ((1.940467e+05 7.301697e+01 1.098283e+04) (1.818493e-03 7.920025e-06 9.957053e-04))
0.81          	((1.566220e+02 3.887036e+05 3.086689e-13) (-1.410532e-05 3.667405e-03 3.178821e-22)) ((1.943518e+05 -7.831101e+01 -1.171091e+04) (1.833703e-03 7.052658e-06 8.665702e-04))
0.82          	((-2.332589e+02 3.873953e+05 3.077353e-13) (-1.709128e-05 3.673617e-03 -1.956377e-17)) ((1.936977e+05 1.166295e+02 1.752311e+04) (1.836809e-03 8.545642e-06 1.104533e-03))
0.83          	((2.073781e+02 3.888069e+05 3.086374e-13) (-1.495486e-05 3.710299e-03 4.030659e-18)) ((1.944034e+05 -1.036890e+02 -1.551676e+04) (1.855150e-03 7.477430e-06 9.391766e-04))
0.84          	((-2.080833e+02 3.877218e+05 3.079587e-13) (-1.749827e-05 3.720105e-03 1.553715e-17)) ((1.938609e+05 1.040416e+02 1.563518e+04) (1.860053e-03 8.749134e-06 1.139567e-03))
0.85          	((2.005236e+02 3.887620e+05 3.086118e-13) (-1.509573e-05 3.743002e-03 -1.553430e-17)) ((1.943810e+05 -1.002618e+02 -1.500255e+04) (1.871501e-03 7.547865e-06 9.510041e-04))
0.86          	((-1.981471e+02 3.877669e+05 3.079736e-13) (-1.751933e-05 3.758863e-03 1.553748e-17)) ((1.938834e+05 9.907355e+01 1.488990e+04) (1.879432e-03 8.759664e-06 1.146537e-03))
0.87          	((2.253505e+02 3.890513e+05 3.088080e-13) (-1.454860e-05 3.786931e-03 -1.956416e-17)) ((1.945256e+05 -1.126752e+02 -1.686393e+04) (1.893466e-03 7.274298e-06 9.106855e-04))
0.88          	((-2.065891e+02 3.880918e+05 3.082265e-13) (-1.699589e-05 3.805324e-03 1.956572e-17)) ((1.940459e+05 1.032945e+02 1.552269e+04) (1.902662e-03 8.497947e-06 1.106794e-03))
0.89          	((2.180803e+02 3.892854e+05 3.089887e-13) (-1.412769e-05 3.833691e-03 8.735099e-22)) ((1.946427e+05 -1.090402e+02 -1.631862e+04) (1.916846e-03 7.063843e-06 8.790686e-04))
0.9           	((-2.172832e+02 3.882104e+05 3.083131e-13) (-1.674791e-05 3.851163e-03 1.249734e-17)) ((1.941052e+05 1.086416e+02 1.632430e+04) (1.925581e-03 8.373955e-06 1.088677e-03))
0.91          	((2.224987e+02 3.893332e+05 3.090098e-13) (-1.391214e-05 3.877928e-03 1.738904e-21)) ((1.946666e+05 -1.112494e+02 -1.664973e+04) (1.938964e-03 6.956072e-06 8.637778e-04))
0.92          	((-2.162782e+02 3.882226e+05 3.083048e-13) (-1.656325e-05 3.893590e-03 -2.803084e-17)) ((1.941113e+05 1.081391e+02 1.624870e+04) (1.946795e-03 8.281624e-06 1.076019e-03))
0.93          	((2.279647e+02 3.893627e+05 3.090095e-13) (-1.371678e-05 3.918727e-03 1.231689e-21)) ((1.946813e+05 -1.139823e+02 -1.705937e+04) (1.959364e-03 6.858390e-06 8.502339e-04))
0.94          	((-2.177564e+02 3.882665e+05 3.083190e-13) (-1.641889e-05 3.932873e-03 -4.028461e-18)) ((1.941332e+05 1.088782e+02 1.635930e+04) (1.966437e-03 8.209446e-06 1.066328e-03))
0.95          	((2.302266e+02 3.894373e+05 3.090462e-13) (-1.356812e-05 3.956899e-03 3.206333e-17)) ((1.947186e+05 -1.151133e+02 -1.722878e+04) (1.978449e-03 6.784062e-06 8.400645e-04))
0.96          	((-2.190200e+02 3.883452e+05 3.083590e-13) (-1.632853e-05 3.970027e-03 -3.206056e-17)) ((1.941726e+05 1.095100e+02 1.645381e+04) (1.985014e-03 8.164265e-06 1.060261e-03))
0.97          	((2.319491e+02 3.895365e+05 3.091058e-13) (-1.352658e-05 3.992868e-03 3.206186e-17)) ((1.947683e+05 -1.159746e+02 -1.735774e+04) (1.996434e-03 6.763290e-06 8.377062e-04))
0.98          	((-2.211734e+02 3.884304e+05 3.084119e-13) (-1.636100e-05 4.004708e-03 -3.206058e-17)) ((1.942152e+05 1.105867e+02 1.661502e+04) (2.002354e-03 8.180501e-06 1.063882e-03))
0.99          	((2.323814e+02 3.896261e+05 3.091585e-13) (-1.357719e-05 4.026428e-03 1.556655e-21)) ((1.948131e+05 -1.161907e+02 -1.738995e+04) (2.013214e-03 6.788593e-06 8.425659e-04))
1             	((-2.228107e+02 3.885156e+05 3.084661e-13) (-1.649578e-05 4.036878e-03 4.029997e-18)) ((1.942578e+05 1.114053e+02 1.673752e+04) (2.018439e-03 8.247891e-06 1.075286e-03))
1.01          	((2.338401e+02 3.897096e+05 3.092057e-13) (-1.366145e-05 4.057316e-03 7.926757e-22)) ((1.948548e+05 -1.169200e+02 -1.749910e+04) (2.028658e-03 6.830723e-06 8.499876e-04))
1.02          	((-2.244109e+02 3.885972e+05 3.085178e-13) (-1.656947e-05 4.066539e-03 7.542693e-22)) ((1.942986e+05 1.122055e+02 1.685724e+04) (2.033270e-03 8.284735e-06 1.081922e-03))
1.03          	((2.359075e+02 3.897879e+05 3.092474e-13) (-1.362339e-05 4.085836e-03 2.803276e-17)) ((1.948940e+05 -1.179538e+02 -1.765390e+04) (2.042918e-03 6.811695e-06 8.476801e-04))
1.04          	((-2.251494e+02 3.886686e+05 3.085573e-13) (-1.651163e-05 4.093785e-03 -1.249498e-17)) ((1.943343e+05 1.125747e+02 1.691234e+04) (2.046892e-03 8.255813e-06 1.077990e-03))
1.05          	((2.378781e+02 3.898521e+05 3.092774e-13) (-1.356794e-05 4.111592e-03 -1.553464e-17)) ((1.949261e+05 -1.189390e+02 -1.780142e+04) (2.055796e-03 6.783970e-06 8.439949e-04))
1.06          	((-2.268520e+02 3.887281e+05 3.085863e-13) (-1.653379e-05 4.118093e-03 8.850218e-22)) ((1.943640e+05 1.134260e+02 1.703973e+04) (2.059047e-03 8.266896e-06 1.080262e-03))
1.07          	((2.375864e+02 3.899121e+05 3.093045e-13) (-1.362278e-05 4.134398e-03 -4.028216e-18)) ((1.949560e+05 -1.187932e+02 -1.777935e+04) (2.067199e-03 6.811388e-06 8.487712e-04))
1.08          	((-2.272163e+02 3.887902e+05 3.086183e-13) (-1.663784e-05 4.139421e-03 3.786402e-22)) ((1.943951e+05 1.136081e+02 1.706677e+04) (2.069710e-03 8.318919e-06 1.088882e-03))
1.09          	((2.385713e+02 3.899860e+05 3.093438e-13) (-1.375434e-05 4.154362e-03 3.206273e-17)) ((1.949930e+05 -1.192857e+02 -1.785297e+04) (2.077181e-03 6.877170e-06 8.595834e-04))
1.1           	((-2.255553e+02 3.888642e+05 3.086600e-13) (-1.679153e-05 4.158035e-03 -2.803079e-17)) ((1.944321e+05 1.127777e+02 1.694199e+04) (2.079017e-03 8.395767e-06 1.101446e-03))
1.11          	((2.410504e+02 3.900546e+05 3.093793e-13) (-1.384144e-05 4.171540e-03 2.803339e-17)) ((1.950273e+05 -1.205252e+02 -1.803860e+04) (2.085770e-03 6.920722e-06 8.669128e-04))
1.12          	((-2.236779e+02 3.889354e+05 3.086993e-13) (-1.685460e-05 4.173799e-03 -1.249502e-17)) ((1.944677e+05 1.118389e+02 1.680097e+04) (2.086900e-03 8.427301e-06 1.106845e-03))
1.13          	((2.400315e+02 3.901283e+05 3.094188e-13) (-1.389392e-05 4.185872e-03 -1.956313e-17)) ((1.950642e+05 -1.200157e+02 -1.796199e+04) (2.092936e-03 6.946961e-06 8.713448e-04))
1.14          	((-2.676679e+02 3.894492e+05 3.090450e-13) (-1.651866e-05 4.194819e-03 3.206314e-17)) ((1.947246e+05 1.338340e+02 2.009836e+04) (2.097410e-03 8.259329e-06 1.068555e-03))
1.15          	((2.810900e+02 3.902889e+05 3.095609e-13) (-1.326775e-05 4.203552e-03 -2.803037e-17)) ((1.951445e+05 -1.405450e+02 -2.103958e+04) (2.101776e-03 6.633877e-06 8.200705e-04))
1.16          	((-2.429006e+02 3.894274e+05 3.090238e-13) (-1.595729e-05 4.209138e-03 9.878675e-22)) ((1.947137e+05 1.214503e+02 1.824136e+04) (2.104569e-03 7.978643e-06 1.025117e-03))
1.17          	((2.757101e+02 3.901871e+05 3.094596e-13) (-1.312907e-05 4.214781e-03 2.803223e-17)) ((1.950936e+05 -1.378550e+02 -2.063604e+04) (2.107391e-03 6.564534e-06 8.097587e-04))
1.18          	((-2.564170e+02 3.893359e+05 3.089316e-13) (-1.621138e-05 4.217027e-03 -3.206133e-17)) ((1.946679e+05 1.282085e+02 1.925430e+04) (2.108513e-03 8.105691e-06 1.045327e-03))
1.19          	((2.703772e+02 3.901424e+05 3.094034e-13) (-1.354480e-05 4.220194e-03 3.428000e-22)) ((1.950712e+05 -1.351886e+02 -2.023602e+04) (2.110097e-03 6.772400e-06 8.425249e-04))
1.2           	((-2.572700e+02 3.893557e+05 3.089291e-13) (-1.652692e-05 4.220433e-03 -2.463781e-24)) ((1.946779e+05 1.286350e+02 1.931793e+04) (2.110216e-03 8.263459e-06 1.070152e-03))
1.21          	((3.585914e+02 3.897437e+05 3.090852e-13) (-1.395245e-05 4.217797e-03 3.206438e-17)) ((1.948718e+05 -1.792957e+02 -2.684847e+04) (2.108898e-03 6.976223e-06 8.898476e-04))
1.22          	((-3.385203e+02 3.893693e+05 3.089083e-13) (-1.732710e-05 4.217405e-03 1.248226e-21)) ((1.946846e+05 1.692602e+02 2.540821e+04) (2.108703e-03 8.663551e-06 1.135781e-03))
1.23          	((3.140619e+02 3.898953e+05 3.091838e-13) (-1.493045e-05 4.214078e-03 -3.206023e-17)) ((1.949476e+05 -1.570310e+02 -2.351013e+04) (2.107039e-03 7.465225e-06 9.656497e-04))
1.24          	((-3.197836e+02 3.896143e+05 3.090811e-13) (-1.776903e-05 4.213426e-03 3.206246e-17)) ((1.948071e+05 1.598918e+02 2.400331e+04) (2.106713e-03 8.884515e-06 1.169917e-03))
1.25          	((3.348551e+02 3.901600e+05 3.093757e-13) (-1.492213e-05 4.210056e-03 7.793385e-22)) ((1.950800e+05 -1.674276e+02 -2.506845e+04) (2.105028e-03 7.461067e-06 9.647181e-04))
1.26          	((-3.066212e+02 3.898303e+05 3.092369e-13) (-1.751227e-05 4.209024e-03 2.353006e-21)) ((1.949151e+05 1.533106e+02 2.301631e+04) (2.104512e-03 8.756135e-06 1.149731e-03))
1.27          	((3.396266e+02 3.902873e+05 3.094595e-13) (-1.463344e-05 4.204539e-03 -3.206001e-17)) ((1.951436e+05 -1.698133e+02 -2.542577e+04) (2.102269e-03 7.316718e-06 9.420112e-04))
1.28          	((-3.101935e+02 3.899209e+05 3.092928e-13) (-1.735764e-05 4.202056e-03 3.206232e-17)) ((1.949604e+05 1.550967e+02 2.328371e+04) (2.101028e-03 8.678822e-06 1.137609e-03))
1.29          	((3.587091e+02 3.904883e+05 3.095966e-13) (-1.445231e-05 4.197361e-03 -3.206201e-17)) ((1.952442e+05 -1.793546e+02 -2.685580e+04) (2.098681e-03 7.226153e-06 9.286692e-04))
1.3           	((-4.820275e+02 3.889499e+05 3.088796e-13) (-1.788032e-05 4.194229e-03 1.956696e-17)) ((1.944750e+05 2.410137e+02 3.616420e+04) (2.097114e-03 8.940161e-06 1.275906e-03))
1.31          	((4.517076e+02 3.898487e+05 3.087561e-13) (-1.585217e-05 4.166106e-03 1.613781e-21)) ((1.949243e+05 -2.258538e+02 -3.382696e+04) (2.083053e-03 7.926086e-06 1.060506e-03))
1.32          	((-4.613425e+02 3.887413e+05 3.085544e-13) (-1.939567e-05 4.167118e-03 -1.956424e-17)) ((1.943706e+05 2.306712e+02 3.461287e+04) (2.083559e-03 9.697833e-06 1.398807e-03))
1.33          	((4.517653e+02 3.904622e+05 3.092555e-13) (-1.701779e-05 4.141063e-03 4.031547e-18)) ((1.952311e+05 -2.258827e+02 -3.383069e+04) (2.070531e-03 8.508897e-06 1.154303e-03))
1.34          	((-4.339567e+02 3.894419e+05 3.091131e-13) (-1.991424e-05 4.147115e-03 2.803248e-17)) ((1.947210e+05 2.169784e+02 3.255974e+04) (2.073557e-03 9.957118e-06 1.443243e-03))
1.35          	((5.664666e+02 3.903687e+05 3.091608e-13) (-1.948349e-05 4.129788e-03 -1.249479e-17)) ((1.951844e+05 -2.832333e+02 -4.242719e+04) (2.064894e-03 9.741747e-06 1.451021e-03))
1.36          	((-4.889044e+02 3.894756e+05 3.091555e-13) (-1.924951e-05 4.099287e-03 -1.553430e-17)) ((1.947378e+05 2.444522e+02 3.667765e+04) (2.049644e-03 9.624756e-06 1.416443e-03))
1.37          	((5.878917e+02 3.902446e+05 3.090485e-13) (-1.738601e-05 4.095636e-03 2.803251e-17)) ((1.951223e+05 -2.939458e+02 -4.403269e+04) (2.047818e-03 8.693005e-06 1.299249e-03))
1.38          	((-4.393937e+02 3.896256e+05 3.091927e-13) (-1.633280e-05 4.069597e-03 6.325804e-22)) ((1.948128e+05 2.196968e+02 3.296600e+04) (2.034798e-03 8.166399e-06 1.193372e-03))
1.39          	((5.757370e+02 3.906469e+05 3.093188e-13) (-1.455493e-05 4.072204e-03 1.962841e-21)) ((1.953234e+05 -2.878685e+02 -4.312106e+04) (2.036102e-03 7.277465e-06 1.079914e-03))
1.4           	((-4.721604e+02 3.901666e+05 3.096201e-13) (-1.389419e-05 4.049873e-03 -3.206071e-17)) ((1.950833e+05 2.360802e+02 3.542148e+04) (2.024937e-03 6.947096e-06 1.003992e-03))
1.41          	((4.999611e+02 3.912047e+05 3.097880e-13) (-1.329427e-05 4.054857e-03 3.206339e-17)) ((1.956024e+05 -2.499805e+02 -3.744090e+04) (2.027429e-03 6.647136e-06 9.801794e-04))
1.42          	((-5.267432e+02 3.905568e+05 3.099496e-13) (-1.359608e-05 4.032318e-03 1.647484e-21)) ((1.952784e+05 2.633716e+02 3.951197e+04) (2.016159e-03 6.798039e-06 9.789321e-04))
1.43          	((4.729412e+02 3.914237e+05 3.099654e-13) (-1.371664e-05 4.036060e-03 -3.206138e-17)) ((1.957118e+05 -2.364706e+02 -3.541523e+04) (2.018030e-03 6.858320e-06 1.012007e-03))
1.44          	((-5.150242e+02 3.906055e+05 3.099824e-13) (-1.422357e-05 4.010760e-03 4.031230e-18)) ((1.953027e+05 2.575121e+02 3.863301e+04) (2.005380e-03 7.111784e-06 1.028383e-03))
1.45          	((4.966733e+02 3.913493e+05 3.098941e-13) (-1.435866e-05 4.011274e-03 2.916905e-22)) ((1.956746e+05 -2.483366e+02 -3.719344e+04) (2.005637e-03 7.179330e-06 1.063607e-03))
1.46          	((-4.814411e+02 3.904926e+05 3.098712e-13) (-1.458991e-05 3.982800e-03 1.553639e-17)) ((1.952463e+05 2.407205e+02 3.611540e+04) (1.991400e-03 7.294957e-06 1.060072e-03))
1.47          	((5.169918e+02 3.912140e+05 3.097615e-13) (-1.434429e-05 3.979949e-03 5.261818e-22)) ((1.956070e+05 -2.584959e+02 -3.871577e+04) (1.989975e-03 7.172146e-06 1.065231e-03))
1.48          	((-4.158880e+02 3.919987e+05 3.107455e-13) (-1.354217e-05 3.959449e-03 1.249868e-17)) ((1.959994e+05 2.079440e+02 3.120122e+04) (1.979724e-03 6.771086e-06 8.837516e-04))
1.49          	((4.294994e+02 3.925692e+05 3.109394e-13) (-1.509752e-05 3.993468e-03 2.397565e-22)) ((1.962846e+05 -2.147497e+02 -3.215770e+04) (1.996734e-03 7.548761e-06 1.077473e-03))
1.5           	((-3.179770e+02 3.912228e+05 3.103441e-13) (-1.357494e-05 3.942418e-03 -3.206095e-17)) ((1.956114e+05 1.589885e+02 2.386328e+04) (1.971209e-03 6.787471e-06 8.867731e-04))
1.51          	((4.221092e+02 3.915614e+05 3.101987e-13) (-1.194742e-05 3.953056e-03 1.956659e-17)) ((1.957807e+05 -2.110546e+02 -3.160331e+04) (1.976528e-03 5.973712e-06 8.486428e-04))
1.52          	((-4.248341e+02 3.903205e+05 3.095071e-13) (-1.420802e-05 3.895730e-03 -1.956380e-17)) ((1.951603e+05 2.124170e+02 3.187101e+04) (1.947865e-03 7.104008e-06 9.416163e-04))
1.53          	((3.589999e+02 3.908462e+05 3.095321e-13) (-1.433243e-05 3.903232e-03 1.956585e-17)) ((1.954231e+05 -1.794999e+02 -2.687340e+04) (1.951616e-03 7.166215e-06 1.033293e-03))
1.54          	((-3.800689e+02 3.902789e+05 3.094276e-13) (-1.567508e-05 3.842886e-03 -1.956529e-17)) ((1.951395e+05 1.900344e+02 2.851568e+04) (1.921443e-03 7.837541e-06 1.057259e-03))
1.55          	((3.853901e+02 3.909931e+05 3.096167e-13) (-1.589002e-05 3.850702e-03 3.206273e-17)) ((1.954966e+05 -1.926951e+02 -2.885078e+04) (1.925351e-03 7.945011e-06 1.156988e-03))
1.56          	((-3.701926e+02 3.906554e+05 3.097159e-13) (-1.591645e-05 3.791967e-03 -1.249562e-17)) ((1.953277e+05 1.850963e+02 2.777513e+04) (1.895983e-03 7.958223e-06 1.076688e-03))
1.57          	((3.849873e+02 3.913581e+05 3.098989e-13) (-1.554677e-05 3.802154e-03 -1.553615e-17)) ((1.956790e+05 -1.924937e+02 -2.882018e+04) (1.901077e-03 7.773385e-06 1.128267e-03))
1.58          	((-3.658660e+02 3.908932e+05 3.099033e-13) (-1.608458e-05 3.742930e-03 2.803318e-17)) ((1.954466e+05 1.829330e+02 2.745047e+04) (1.871465e-03 8.042289e-06 1.088799e-03))
1.59          	((1.922267e+02 3.918578e+05 3.104129e-13) (-1.403033e-05 3.723065e-03 -2.803114e-17)) ((1.959289e+05 -9.611337e+01 -1.437407e+04) (1.861533e-03 7.015164e-06 9.235912e-04))